
Linearized model: Predictions were generated on 29-Nov-2022 at 22:55:30 using OpenFAST, compiled as a 64-bit application using single precision at commit v3.2.1
 linked with  NWTC Subroutine Library; ElastoDyn; InflowWind; AeroDyn; ServoDyn; HydroDyn; SubDyn

Description from the FAST input file: IEA 15 MW offshore reference model monopile configuration

Simulation information:
   Simulation time:                   316.1350 s
   Rotor Speed:                         0.6807 rad/s
   Azimuth:                             0.0020 rad
   Wind Speed:                          8.0000 m/s
   Number of continuous states:        40
   Number of discrete states:           0
   Number of constraint states:         0
   Number of inputs:                  160
   Number of outputs:                 894
   Jacobians included in this file?    No

Order of continuous states:
   Row/Column Operating Point                     Rotating Frame? Derivative Order Description
   ---------- ---------------                     --------------- ---------------- -----------
          1    5.403E-02                                 F               2         ED Platform horizontal surge translation DOF (internal DOF index = DOF_Sg), m
          2   -2.281E-03                                 F               2         ED Platform horizontal sway translation DOF (internal DOF index = DOF_Sw), m
          3   -3.245E-03                                 F               2         ED Platform vertical heave translation DOF (internal DOF index = DOF_Hv), m
          4    1.096E-04                                 F               2         ED Platform roll tilt rotation DOF (internal DOF index = DOF_R), rad
          5    2.334E-03                                 F               2         ED Platform pitch tilt rotation DOF (internal DOF index = DOF_P), rad
          6    1.805E-05                                 F               2         ED Platform yaw rotation DOF (internal DOF index = DOF_Y), rad
          7    4.745E-01                                 F               2         ED 1st tower fore-aft bending mode DOF (internal DOF index = DOF_TFA1), m
          8    2.431E-02                                 F               2         ED 1st tower side-to-side bending mode DOF (internal DOF index = DOF_TSS1), m
          9   -1.854E-01                                 F               2         ED 2nd tower fore-aft bending mode DOF (internal DOF index = DOF_TFA2), m
         10    2.663E-02                                 F               2         ED 2nd tower side-to-side bending mode DOF (internal DOF index = DOF_TSS2), m
         11    4.714E+00                                 F               2         ED Variable speed generator DOF (internal DOF index = DOF_GeAz), rad
         12    9.896E+00                                 T               2         ED 1st flapwise bending-mode DOF of blade 1 (internal DOF index = DOF_BF(1,1)), m
         13    9.838E+00                                 T               2         ED 1st flapwise bending-mode DOF of blade 2 (internal DOF index = DOF_BF(2,1)), m
         14    8.809E+00                                 T               2         ED 1st flapwise bending-mode DOF of blade 3 (internal DOF index = DOF_BF(3,1)), m
         15    2.936E-01                                 T               2         ED 1st edgewise bending-mode DOF of blade 1 (internal DOF index = DOF_BE(1,1)), m
         16   -7.043E-01                                 T               2         ED 1st edgewise bending-mode DOF of blade 2 (internal DOF index = DOF_BE(2,1)), m
         17    1.364E+00                                 T               2         ED 1st edgewise bending-mode DOF of blade 3 (internal DOF index = DOF_BE(3,1)), m
         18    1.358E+00                                 T               2         ED 2nd flapwise bending-mode DOF of blade 1 (internal DOF index = DOF_BF(1,2)), m
         19    1.178E+00                                 T               2         ED 2nd flapwise bending-mode DOF of blade 2 (internal DOF index = DOF_BF(2,2)), m
         20    1.292E+00                                 T               2         ED 2nd flapwise bending-mode DOF of blade 3 (internal DOF index = DOF_BF(3,2)), m
         21    9.861E-04                                 F               2         ED First time derivative of Platform horizontal surge translation DOF (internal DOF index = DOF_Sg), m/s
         22    8.131E-05                                 F               2         ED First time derivative of Platform horizontal sway translation DOF (internal DOF index = DOF_Sw), m/s
         23   -5.085E-06                                 F               2         ED First time derivative of Platform vertical heave translation DOF (internal DOF index = DOF_Hv), m/s
         24   -5.803E-06                                 F               2         ED First time derivative of Platform roll tilt rotation DOF (internal DOF index = DOF_R), rad/s
         25    3.611E-05                                 F               2         ED First time derivative of Platform pitch tilt rotation DOF (internal DOF index = DOF_P), rad/s
         26   -1.892E-05                                 F               2         ED First time derivative of Platform yaw rotation DOF (internal DOF index = DOF_Y), rad/s
         27    9.655E-04                                 F               2         ED First time derivative of 1st tower fore-aft bending mode DOF (internal DOF index = DOF_TFA1), m/s
         28   -2.772E-03                                 F               2         ED First time derivative of 1st tower side-to-side bending mode DOF (internal DOF index = DOF_TSS1), m/s
         29   -6.216E-03                                 F               2         ED First time derivative of 2nd tower fore-aft bending mode DOF (internal DOF index = DOF_TFA2), m/s
         30   -8.476E-04                                 F               2         ED First time derivative of 2nd tower side-to-side bending mode DOF (internal DOF index = DOF_TSS2), m/s
         31    6.807E-01                                 F               2         ED First time derivative of Variable speed generator DOF (internal DOF index = DOF_GeAz), rad/s
         32    3.307E-01                                 T               2         ED First time derivative of 1st flapwise bending-mode DOF of blade 1 (internal DOF index = DOF_BF(1,1)), m/s
         33   -4.536E-01                                 T               2         ED First time derivative of 1st flapwise bending-mode DOF of blade 2 (internal DOF index = DOF_BF(2,1)), m/s
         34    2.473E-01                                 T               2         ED First time derivative of 1st flapwise bending-mode DOF of blade 3 (internal DOF index = DOF_BF(3,1)), m/s
         35   -8.196E-01                                 T               2         ED First time derivative of 1st edgewise bending-mode DOF of blade 1 (internal DOF index = DOF_BE(1,1)), m/s
         36    4.834E-01                                 T               2         ED First time derivative of 1st edgewise bending-mode DOF of blade 2 (internal DOF index = DOF_BE(2,1)), m/s
         37    3.524E-01                                 T               2         ED First time derivative of 1st edgewise bending-mode DOF of blade 3 (internal DOF index = DOF_BE(3,1)), m/s
         38   -7.797E-02                                 T               2         ED First time derivative of 2nd flapwise bending-mode DOF of blade 1 (internal DOF index = DOF_BF(1,2)), m/s
         39   -9.813E-03                                 T               2         ED First time derivative of 2nd flapwise bending-mode DOF of blade 2 (internal DOF index = DOF_BF(2,2)), m/s
         40    1.117E-01                                 T               2         ED First time derivative of 2nd flapwise bending-mode DOF of blade 3 (internal DOF index = DOF_BF(3,2)), m/s

Order of continuous state derivatives:
   Row/Column Operating Point                     Rotating Frame? Derivative Order Description
   ---------- ---------------                     --------------- ---------------- -----------
          1    9.861E-04                                 F               2         First time derivative of ED Platform horizontal surge translation DOF (internal DOF index = DOF_Sg), m/s
          2    8.131E-05                                 F               2         First time derivative of ED Platform horizontal sway translation DOF (internal DOF index = DOF_Sw), m/s
          3   -5.085E-06                                 F               2         First time derivative of ED Platform vertical heave translation DOF (internal DOF index = DOF_Hv), m/s
          4   -5.803E-06                                 F               2         First time derivative of ED Platform roll tilt rotation DOF (internal DOF index = DOF_R), rad/s
          5    3.611E-05                                 F               2         First time derivative of ED Platform pitch tilt rotation DOF (internal DOF index = DOF_P), rad/s
          6   -1.892E-05                                 F               2         First time derivative of ED Platform yaw rotation DOF (internal DOF index = DOF_Y), rad/s
          7    9.655E-04                                 F               2         First time derivative of ED 1st tower fore-aft bending mode DOF (internal DOF index = DOF_TFA1), m/s
          8   -2.772E-03                                 F               2         First time derivative of ED 1st tower side-to-side bending mode DOF (internal DOF index = DOF_TSS1), m/s
          9   -6.216E-03                                 F               2         First time derivative of ED 2nd tower fore-aft bending mode DOF (internal DOF index = DOF_TFA2), m/s
         10   -8.476E-04                                 F               2         First time derivative of ED 2nd tower side-to-side bending mode DOF (internal DOF index = DOF_TSS2), m/s
         11    6.807E-01                                 F               2         First time derivative of ED Variable speed generator DOF (internal DOF index = DOF_GeAz), rad/s
         12    3.307E-01                                 T               2         First time derivative of ED 1st flapwise bending-mode DOF of blade 1 (internal DOF index = DOF_BF(1,1)), m/s
         13   -4.536E-01                                 T               2         First time derivative of ED 1st flapwise bending-mode DOF of blade 2 (internal DOF index = DOF_BF(2,1)), m/s
         14    2.473E-01                                 T               2         First time derivative of ED 1st flapwise bending-mode DOF of blade 3 (internal DOF index = DOF_BF(3,1)), m/s
         15   -8.196E-01                                 T               2         First time derivative of ED 1st edgewise bending-mode DOF of blade 1 (internal DOF index = DOF_BE(1,1)), m/s
         16    4.834E-01                                 T               2         First time derivative of ED 1st edgewise bending-mode DOF of blade 2 (internal DOF index = DOF_BE(2,1)), m/s
         17    3.524E-01                                 T               2         First time derivative of ED 1st edgewise bending-mode DOF of blade 3 (internal DOF index = DOF_BE(3,1)), m/s
         18   -7.797E-02                                 T               2         First time derivative of ED 2nd flapwise bending-mode DOF of blade 1 (internal DOF index = DOF_BF(1,2)), m/s
         19   -9.813E-03                                 T               2         First time derivative of ED 2nd flapwise bending-mode DOF of blade 2 (internal DOF index = DOF_BF(2,2)), m/s
         20    1.117E-01                                 T               2         First time derivative of ED 2nd flapwise bending-mode DOF of blade 3 (internal DOF index = DOF_BF(3,2)), m/s
         21    9.406E-04                                 F               2         First time derivative of ED First time derivative of Platform horizontal surge translation DOF (internal DOF index = DOF_Sg), m/s/s
         22   -4.823E-03                                 F               2         First time derivative of ED First time derivative of Platform horizontal sway translation DOF (internal DOF index = DOF_Sw), m/s/s
         23    3.955E-05                                 F               2         First time derivative of ED First time derivative of Platform vertical heave translation DOF (internal DOF index = DOF_Hv), m/s/s
         24    1.784E-04                                 F               2         First time derivative of ED First time derivative of Platform roll tilt rotation DOF (internal DOF index = DOF_R), rad/s/s
         25    1.699E-05                                 F               2         First time derivative of ED First time derivative of Platform pitch tilt rotation DOF (internal DOF index = DOF_P), rad/s/s
         26   -4.784E-05                                 F               2         First time derivative of ED First time derivative of Platform yaw rotation DOF (internal DOF index = DOF_Y), rad/s/s
         27   -9.192E-03                                 F               2         First time derivative of ED First time derivative of 1st tower fore-aft bending mode DOF (internal DOF index = DOF_TFA1), m/s/s
         28   -7.352E-03                                 F               2         First time derivative of ED First time derivative of 1st tower side-to-side bending mode DOF (internal DOF index = DOF_TSS1), m/s/s
         29    4.785E-03                                 F               2         First time derivative of ED First time derivative of 2nd tower fore-aft bending mode DOF (internal DOF index = DOF_TFA2), m/s/s
         30   -1.133E-02                                 F               2         First time derivative of ED First time derivative of 2nd tower side-to-side bending mode DOF (internal DOF index = DOF_TSS2), m/s/s
         31    6.961E-04                                 F               2         First time derivative of ED First time derivative of Variable speed generator DOF (internal DOF index = DOF_GeAz), rad/s/s
         32   -2.260E-01                                 T               2         First time derivative of ED First time derivative of 1st flapwise bending-mode DOF of blade 1 (internal DOF index = DOF_BF(1,1)), m/s/s
         33   -3.546E-01                                 T               2         First time derivative of ED First time derivative of 1st flapwise bending-mode DOF of blade 2 (internal DOF index = DOF_BF(2,1)), m/s/s
         34    3.565E-01                                 T               2         First time derivative of ED First time derivative of 1st flapwise bending-mode DOF of blade 3 (internal DOF index = DOF_BF(3,1)), m/s/s
         35    2.249E-01                                 T               2         First time derivative of ED First time derivative of 1st edgewise bending-mode DOF of blade 1 (internal DOF index = DOF_BE(1,1)), m/s/s
         36    6.461E-01                                 T               2         First time derivative of ED First time derivative of 1st edgewise bending-mode DOF of blade 2 (internal DOF index = DOF_BE(2,1)), m/s/s
         37   -7.241E-01                                 T               2         First time derivative of ED First time derivative of 1st edgewise bending-mode DOF of blade 3 (internal DOF index = DOF_BE(3,1)), m/s/s
         38    2.121E-01                                 T               2         First time derivative of ED First time derivative of 2nd flapwise bending-mode DOF of blade 1 (internal DOF index = DOF_BF(1,2)), m/s/s
         39    1.276E-02                                 T               2         First time derivative of ED First time derivative of 2nd flapwise bending-mode DOF of blade 2 (internal DOF index = DOF_BF(2,2)), m/s/s
         40   -1.689E-01                                 T               2         First time derivative of ED First time derivative of 2nd flapwise bending-mode DOF of blade 3 (internal DOF index = DOF_BF(3,2)), m/s/s

Order of inputs:
     Column   Operating Point                     Rotating Frame? Derivative Order Description
   ---------- ---------------                     --------------- ---------------- -----------
          1    8.000E+00                                 F               0         IfW Extended input: horizontal wind speed (steady/uniform wind), m/s
          2    1.200E-01                                 F               0         IfW Extended input: vertical power-law shear exponent, -
          3    0.000E+00                                 F               0         IfW Extended input: propagation direction, rad
          4    0.000E+00                                 T               0         ED Blade 1 pitch command, rad
          5    0.000E+00                                 T               0         ED Blade 2 pitch command, rad
          6    0.000E+00                                 T               0         ED Blade 3 pitch command, rad
          7    0.000E+00                                 F               0         ED Yaw moment, Nm
          8    9.455E+06                                 F               0         ED Generator torque, Nm
          9    0.000E+00                                 F               0         ED Extended input: collective blade-pitch command, rad
         10    0.000E+00                                 T               0         AD User property on blade 1, node 1, -
         11    0.000E+00                                 T               0         AD User property on blade 1, node 2, -
         12    0.000E+00                                 T               0         AD User property on blade 1, node 3, -
         13    0.000E+00                                 T               0         AD User property on blade 1, node 4, -
         14    0.000E+00                                 T               0         AD User property on blade 1, node 5, -
         15    0.000E+00                                 T               0         AD User property on blade 1, node 6, -
         16    0.000E+00                                 T               0         AD User property on blade 1, node 7, -
         17    0.000E+00                                 T               0         AD User property on blade 1, node 8, -
         18    0.000E+00                                 T               0         AD User property on blade 1, node 9, -
         19    0.000E+00                                 T               0         AD User property on blade 1, node 10, -
         20    0.000E+00                                 T               0         AD User property on blade 1, node 11, -
         21    0.000E+00                                 T               0         AD User property on blade 1, node 12, -
         22    0.000E+00                                 T               0         AD User property on blade 1, node 13, -
         23    0.000E+00                                 T               0         AD User property on blade 1, node 14, -
         24    0.000E+00                                 T               0         AD User property on blade 1, node 15, -
         25    0.000E+00                                 T               0         AD User property on blade 1, node 16, -
         26    0.000E+00                                 T               0         AD User property on blade 1, node 17, -
         27    0.000E+00                                 T               0         AD User property on blade 1, node 18, -
         28    0.000E+00                                 T               0         AD User property on blade 1, node 19, -
         29    0.000E+00                                 T               0         AD User property on blade 1, node 20, -
         30    0.000E+00                                 T               0         AD User property on blade 1, node 21, -
         31    0.000E+00                                 T               0         AD User property on blade 1, node 22, -
         32    0.000E+00                                 T               0         AD User property on blade 1, node 23, -
         33    0.000E+00                                 T               0         AD User property on blade 1, node 24, -
         34    0.000E+00                                 T               0         AD User property on blade 1, node 25, -
         35    0.000E+00                                 T               0         AD User property on blade 1, node 26, -
         36    0.000E+00                                 T               0         AD User property on blade 1, node 27, -
         37    0.000E+00                                 T               0         AD User property on blade 1, node 28, -
         38    0.000E+00                                 T               0         AD User property on blade 1, node 29, -
         39    0.000E+00                                 T               0         AD User property on blade 1, node 30, -
         40    0.000E+00                                 T               0         AD User property on blade 1, node 31, -
         41    0.000E+00                                 T               0         AD User property on blade 1, node 32, -
         42    0.000E+00                                 T               0         AD User property on blade 1, node 33, -
         43    0.000E+00                                 T               0         AD User property on blade 1, node 34, -
         44    0.000E+00                                 T               0         AD User property on blade 1, node 35, -
         45    0.000E+00                                 T               0         AD User property on blade 1, node 36, -
         46    0.000E+00                                 T               0         AD User property on blade 1, node 37, -
         47    0.000E+00                                 T               0         AD User property on blade 1, node 38, -
         48    0.000E+00                                 T               0         AD User property on blade 1, node 39, -
         49    0.000E+00                                 T               0         AD User property on blade 1, node 40, -
         50    0.000E+00                                 T               0         AD User property on blade 1, node 41, -
         51    0.000E+00                                 T               0         AD User property on blade 1, node 42, -
         52    0.000E+00                                 T               0         AD User property on blade 1, node 43, -
         53    0.000E+00                                 T               0         AD User property on blade 1, node 44, -
         54    0.000E+00                                 T               0         AD User property on blade 1, node 45, -
         55    0.000E+00                                 T               0         AD User property on blade 1, node 46, -
         56    0.000E+00                                 T               0         AD User property on blade 1, node 47, -
         57    0.000E+00                                 T               0         AD User property on blade 1, node 48, -
         58    0.000E+00                                 T               0         AD User property on blade 1, node 49, -
         59    0.000E+00                                 T               0         AD User property on blade 1, node 50, -
         60    0.000E+00                                 T               0         AD User property on blade 2, node 1, -
         61    0.000E+00                                 T               0         AD User property on blade 2, node 2, -
         62    0.000E+00                                 T               0         AD User property on blade 2, node 3, -
         63    0.000E+00                                 T               0         AD User property on blade 2, node 4, -
         64    0.000E+00                                 T               0         AD User property on blade 2, node 5, -
         65    0.000E+00                                 T               0         AD User property on blade 2, node 6, -
         66    0.000E+00                                 T               0         AD User property on blade 2, node 7, -
         67    0.000E+00                                 T               0         AD User property on blade 2, node 8, -
         68    0.000E+00                                 T               0         AD User property on blade 2, node 9, -
         69    0.000E+00                                 T               0         AD User property on blade 2, node 10, -
         70    0.000E+00                                 T               0         AD User property on blade 2, node 11, -
         71    0.000E+00                                 T               0         AD User property on blade 2, node 12, -
         72    0.000E+00                                 T               0         AD User property on blade 2, node 13, -
         73    0.000E+00                                 T               0         AD User property on blade 2, node 14, -
         74    0.000E+00                                 T               0         AD User property on blade 2, node 15, -
         75    0.000E+00                                 T               0         AD User property on blade 2, node 16, -
         76    0.000E+00                                 T               0         AD User property on blade 2, node 17, -
         77    0.000E+00                                 T               0         AD User property on blade 2, node 18, -
         78    0.000E+00                                 T               0         AD User property on blade 2, node 19, -
         79    0.000E+00                                 T               0         AD User property on blade 2, node 20, -
         80    0.000E+00                                 T               0         AD User property on blade 2, node 21, -
         81    0.000E+00                                 T               0         AD User property on blade 2, node 22, -
         82    0.000E+00                                 T               0         AD User property on blade 2, node 23, -
         83    0.000E+00                                 T               0         AD User property on blade 2, node 24, -
         84    0.000E+00                                 T               0         AD User property on blade 2, node 25, -
         85    0.000E+00                                 T               0         AD User property on blade 2, node 26, -
         86    0.000E+00                                 T               0         AD User property on blade 2, node 27, -
         87    0.000E+00                                 T               0         AD User property on blade 2, node 28, -
         88    0.000E+00                                 T               0         AD User property on blade 2, node 29, -
         89    0.000E+00                                 T               0         AD User property on blade 2, node 30, -
         90    0.000E+00                                 T               0         AD User property on blade 2, node 31, -
         91    0.000E+00                                 T               0         AD User property on blade 2, node 32, -
         92    0.000E+00                                 T               0         AD User property on blade 2, node 33, -
         93    0.000E+00                                 T               0         AD User property on blade 2, node 34, -
         94    0.000E+00                                 T               0         AD User property on blade 2, node 35, -
         95    0.000E+00                                 T               0         AD User property on blade 2, node 36, -
         96    0.000E+00                                 T               0         AD User property on blade 2, node 37, -
         97    0.000E+00                                 T               0         AD User property on blade 2, node 38, -
         98    0.000E+00                                 T               0         AD User property on blade 2, node 39, -
         99    0.000E+00                                 T               0         AD User property on blade 2, node 40, -
        100    0.000E+00                                 T               0         AD User property on blade 2, node 41, -
        101    0.000E+00                                 T               0         AD User property on blade 2, node 42, -
        102    0.000E+00                                 T               0         AD User property on blade 2, node 43, -
        103    0.000E+00                                 T               0         AD User property on blade 2, node 44, -
        104    0.000E+00                                 T               0         AD User property on blade 2, node 45, -
        105    0.000E+00                                 T               0         AD User property on blade 2, node 46, -
        106    0.000E+00                                 T               0         AD User property on blade 2, node 47, -
        107    0.000E+00                                 T               0         AD User property on blade 2, node 48, -
        108    0.000E+00                                 T               0         AD User property on blade 2, node 49, -
        109    0.000E+00                                 T               0         AD User property on blade 2, node 50, -
        110    0.000E+00                                 T               0         AD User property on blade 3, node 1, -