
Linearized model: Predictions were generated on 25-Nov-2022 at 11:30:24 using OpenFAST, compiled as a 64-bit application using single precision at commit v3.2.1
 linked with  NWTC Subroutine Library; ElastoDyn; InflowWind; AeroDyn; ServoDyn; HydroDyn; SubDyn

Description from the FAST input file: IEA 15 MW offshore reference model monopile configuration

Simulation information:
   Simulation time:                   149.9600 s
   Rotor Speed:                         0.7810 rad/s
   Azimuth:                             5.0296 rad
   Wind Speed:                         12.0000 m/s
   Number of continuous states:        28
   Number of discrete states:           0
   Number of constraint states:         0
   Number of inputs:                  160
   Number of outputs:                 894
   Jacobians included in this file?    No

Order of continuous states:
   Row/Column Operating Point                     Rotating Frame? Derivative Order Description
   ---------- ---------------                     --------------- ---------------- -----------
          1    4.785E-01                                 F               2         ED 1st tower fore-aft bending mode DOF (internal DOF index = DOF_TFA1), m
          2    3.532E-02                                 F               2         ED 1st tower side-to-side bending mode DOF (internal DOF index = DOF_TSS1), m
          3   -1.776E-01                                 F               2         ED 2nd tower fore-aft bending mode DOF (internal DOF index = DOF_TFA2), m
          4    5.313E-02                                 F               2         ED 2nd tower side-to-side bending mode DOF (internal DOF index = DOF_TSS2), m
          5    3.459E+00                                 F               2         ED Variable speed generator DOF (internal DOF index = DOF_GeAz), rad
          6    8.050E+00                                 T               2         ED 1st flapwise bending-mode DOF of blade 1 (internal DOF index = DOF_BF(1,1)), m
          7    9.499E+00                                 T               2         ED 1st flapwise bending-mode DOF of blade 2 (internal DOF index = DOF_BF(2,1)), m
          8    7.970E+00                                 T               2         ED 1st flapwise bending-mode DOF of blade 3 (internal DOF index = DOF_BF(3,1)), m
          9    1.603E+00                                 T               2         ED 1st edgewise bending-mode DOF of blade 1 (internal DOF index = DOF_BE(1,1)), m
         10   -3.496E-01                                 T               2         ED 1st edgewise bending-mode DOF of blade 2 (internal DOF index = DOF_BE(2,1)), m
         11    2.853E-01                                 T               2         ED 1st edgewise bending-mode DOF of blade 3 (internal DOF index = DOF_BE(3,1)), m
         12    9.811E-01                                 T               2         ED 2nd flapwise bending-mode DOF of blade 1 (internal DOF index = DOF_BF(1,2)), m
         13    8.315E-01                                 T               2         ED 2nd flapwise bending-mode DOF of blade 2 (internal DOF index = DOF_BF(2,2)), m
         14    6.952E-01                                 T               2         ED 2nd flapwise bending-mode DOF of blade 3 (internal DOF index = DOF_BF(3,2)), m
         15   -1.252E-02                                 F               2         ED First time derivative of 1st tower fore-aft bending mode DOF (internal DOF index = DOF_TFA1), m/s
         16   -5.817E-02                                 F               2         ED First time derivative of 1st tower side-to-side bending mode DOF (internal DOF index = DOF_TSS1), m/s
         17    9.541E-03                                 F               2         ED First time derivative of 2nd tower fore-aft bending mode DOF (internal DOF index = DOF_TFA2), m/s
         18    2.535E-05                                 F               2         ED First time derivative of 2nd tower side-to-side bending mode DOF (internal DOF index = DOF_TSS2), m/s
         19    7.810E-01                                 F               2         ED First time derivative of Variable speed generator DOF (internal DOF index = DOF_GeAz), rad/s
         20    7.135E-01                                 T               2         ED First time derivative of 1st flapwise bending-mode DOF of blade 1 (internal DOF index = DOF_BF(1,1)), m/s
         21    1.243E-01                                 T               2         ED First time derivative of 1st flapwise bending-mode DOF of blade 2 (internal DOF index = DOF_BF(2,1)), m/s
         22   -1.035E+00                                 T               2         ED First time derivative of 1st flapwise bending-mode DOF of blade 3 (internal DOF index = DOF_BF(3,1)), m/s
         23   -2.707E-01                                 T               2         ED First time derivative of 1st edgewise bending-mode DOF of blade 1 (internal DOF index = DOF_BE(1,1)), m/s
         24   -5.925E-01                                 T               2         ED First time derivative of 1st edgewise bending-mode DOF of blade 2 (internal DOF index = DOF_BE(2,1)), m/s
         25    8.229E-01                                 T               2         ED First time derivative of 1st edgewise bending-mode DOF of blade 3 (internal DOF index = DOF_BE(3,1)), m/s
         26    7.351E-02                                 T               2         ED First time derivative of 2nd flapwise bending-mode DOF of blade 1 (internal DOF index = DOF_BF(1,2)), m/s
         27   -9.810E-02                                 T               2         ED First time derivative of 2nd flapwise bending-mode DOF of blade 2 (internal DOF index = DOF_BF(2,2)), m/s
         28    3.600E-02                                 T               2         ED First time derivative of 2nd flapwise bending-mode DOF of blade 3 (internal DOF index = DOF_BF(3,2)), m/s

Order of continuous state derivatives:
   Row/Column Operating Point                     Rotating Frame? Derivative Order Description
   ---------- ---------------                     --------------- ---------------- -----------
          1   -1.252E-02                                 F               2         First time derivative of ED 1st tower fore-aft bending mode DOF (internal DOF index = DOF_TFA1), m/s
          2   -5.817E-02                                 F               2         First time derivative of ED 1st tower side-to-side bending mode DOF (internal DOF index = DOF_TSS1), m/s
          3    9.541E-03                                 F               2         First time derivative of ED 2nd tower fore-aft bending mode DOF (internal DOF index = DOF_TFA2), m/s
          4    2.535E-05                                 F               2         First time derivative of ED 2nd tower side-to-side bending mode DOF (internal DOF index = DOF_TSS2), m/s
          5    7.810E-01                                 F               2         First time derivative of ED Variable speed generator DOF (internal DOF index = DOF_GeAz), rad/s
          6    7.135E-01                                 T               2         First time derivative of ED 1st flapwise bending-mode DOF of blade 1 (internal DOF index = DOF_BF(1,1)), m/s
          7    1.243E-01                                 T               2         First time derivative of ED 1st flapwise bending-mode DOF of blade 2 (internal DOF index = DOF_BF(2,1)), m/s
          8   -1.035E+00                                 T               2         First time derivative of ED 1st flapwise bending-mode DOF of blade 3 (internal DOF index = DOF_BF(3,1)), m/s
          9   -2.707E-01                                 T               2         First time derivative of ED 1st edgewise bending-mode DOF of blade 1 (internal DOF index = DOF_BE(1,1)), m/s
         10   -5.925E-01                                 T               2         First time derivative of ED 1st edgewise bending-mode DOF of blade 2 (internal DOF index = DOF_BE(2,1)), m/s
         11    8.229E-01                                 T               2         First time derivative of ED 1st edgewise bending-mode DOF of blade 3 (internal DOF index = DOF_BE(3,1)), m/s
         12    7.351E-02                                 T               2         First time derivative of ED 2nd flapwise bending-mode DOF of blade 1 (internal DOF index = DOF_BF(1,2)), m/s
         13   -9.810E-02                                 T               2         First time derivative of ED 2nd flapwise bending-mode DOF of blade 2 (internal DOF index = DOF_BF(2,2)), m/s
         14    3.600E-02                                 T               2         First time derivative of ED 2nd flapwise bending-mode DOF of blade 3 (internal DOF index = DOF_BF(3,2)), m/s
         15    6.481E-03                                 F               2         First time derivative of ED First time derivative of 1st tower fore-aft bending mode DOF (internal DOF index = DOF_TFA1), m/s/s
         16    5.591E-02                                 F               2         First time derivative of ED First time derivative of 1st tower side-to-side bending mode DOF (internal DOF index = DOF_TSS1), m/s/s
         17   -4.857E-03                                 F               2         First time derivative of ED First time derivative of 2nd tower fore-aft bending mode DOF (internal DOF index = DOF_TFA2), m/s/s
         18    8.452E-04                                 F               2         First time derivative of ED First time derivative of 2nd tower side-to-side bending mode DOF (internal DOF index = DOF_TSS2), m/s/s
         19   -1.713E-03                                 F               2         First time derivative of ED First time derivative of Variable speed generator DOF (internal DOF index = DOF_GeAz), rad/s/s
         20    1.327E-01                                 T               2         First time derivative of ED First time derivative of 1st flapwise bending-mode DOF of blade 1 (internal DOF index = DOF_BF(1,1)), m/s/s
         21   -4.116E-01                                 T               2         First time derivative of ED First time derivative of 1st flapwise bending-mode DOF of blade 2 (internal DOF index = DOF_BF(2,1)), m/s/s
         22   -5.282E-01                                 T               2         First time derivative of ED First time derivative of 1st flapwise bending-mode DOF of blade 3 (internal DOF index = DOF_BF(3,1)), m/s/s
         23   -8.183E-01                                 T               2         First time derivative of ED First time derivative of 1st edgewise bending-mode DOF of blade 1 (internal DOF index = DOF_BE(1,1)), m/s/s
         24    3.214E-01                                 T               2         First time derivative of ED First time derivative of 1st edgewise bending-mode DOF of blade 2 (internal DOF index = DOF_BE(2,1)), m/s/s
         25   -9.731E-03                                 T               2         First time derivative of ED First time derivative of 1st edgewise bending-mode DOF of blade 3 (internal DOF index = DOF_BE(3,1)), m/s/s
         26   -1.775E-01                                 T               2         First time derivative of ED First time derivative of 2nd flapwise bending-mode DOF of blade 1 (internal DOF index = DOF_BF(1,2)), m/s/s
         27   -4.533E-02                                 T               2         First time derivative of ED First time derivative of 2nd flapwise bending-mode DOF of blade 2 (internal DOF index = DOF_BF(2,2)), m/s/s
         28    2.183E-01                                 T               2         First time derivative of ED First time derivative of 2nd flapwise bending-mode DOF of blade 3 (internal DOF index = DOF_BF(3,2)), m/s/s

Order of inputs:
     Column   Operating Point                     Rotating Frame? Derivative Order Description
   ---------- ---------------                     --------------- ---------------- -----------
          1    1.200E+01                                 F               0         IfW Extended input: horizontal wind speed (steady/uniform wind), m/s
          2    1.200E-01                                 F               0         IfW Extended input: vertical power-law shear exponent, -
          3    0.000E+00                                 F               0         IfW Extended input: propagation direction, rad
          4    1.169E-01                                 T               0         ED Blade 1 pitch command, rad
          5    1.169E-01                                 T               0         ED Blade 2 pitch command, rad
          6    1.169E-01                                 T               0         ED Blade 3 pitch command, rad
          7    0.000E+00                                 F               0         ED Yaw moment, Nm
          8    1.930E+07                                 F               0         ED Generator torque, Nm
          9    1.169E-01                                 F               0         ED Extended input: collective blade-pitch command, rad
         10    0.000E+00                                 T               0         AD User property on blade 1, node 1, -
         11    0.000E+00                                 T               0         AD User property on blade 1, node 2, -
         12    0.000E+00                                 T               0         AD User property on blade 1, node 3, -
         13    0.000E+00                                 T               0         AD User property on blade 1, node 4, -
         14    0.000E+00                                 T               0         AD User property on blade 1, node 5, -
         15    0.000E+00                                 T               0         AD User property on blade 1, node 6, -
         16    0.000E+00                                 T               0         AD User property on blade 1, node 7, -
         17    0.000E+00                                 T               0         AD User property on blade 1, node 8, -
         18    0.000E+00                                 T               0         AD User property on blade 1, node 9, -
         19    0.000E+00                                 T               0         AD User property on blade 1, node 10, -
         20    0.000E+00                                 T               0         AD User property on blade 1, node 11, -
         21    0.000E+00                                 T               0         AD User property on blade 1, node 12, -
         22    0.000E+00                                 T               0         AD User property on blade 1, node 13, -
         23    0.000E+00                                 T               0         AD User property on blade 1, node 14, -
         24    0.000E+00                                 T               0         AD User property on blade 1, node 15, -
         25    0.000E+00                                 T               0         AD User property on blade 1, node 16, -
         26    0.000E+00                                 T               0         AD User property on blade 1, node 17, -
         27    0.000E+00                                 T               0         AD User property on blade 1, node 18, -
         28    0.000E+00                                 T               0         AD User property on blade 1, node 19, -
         29    0.000E+00                                 T               0         AD User property on blade 1, node 20, -
         30    0.000E+00                                 T               0         AD User property on blade 1, node 21, -
         31    0.000E+00                                 T               0         AD User property on blade 1, node 22, -
         32    0.000E+00                                 T               0         AD User property on blade 1, node 23, -
         33    0.000E+00                                 T               0         AD User property on blade 1, node 24, -
         34    0.000E+00                                 T               0         AD User property on blade 1, node 25, -
         35    0.000E+00                                 T               0         AD User property on blade 1, node 26, -
         36    0.000E+00                                 T               0         AD User property on blade 1, node 27, -
         37    0.000E+00                                 T               0         AD User property on blade 1, node 28, -
         38    0.000E+00                                 T               0         AD User property on blade 1, node 29, -
         39    0.000E+00                                 T               0         AD User property on blade 1, node 30, -
         40    0.000E+00                                 T               0         AD User property on blade 1, node 31, -
         41    0.000E+00                                 T               0         AD User property on blade 1, node 32, -
         42    0.000E+00                                 T               0         AD User property on blade 1, node 33, -
         43    0.000E+00                                 T               0         AD User property on blade 1, node 34, -
         44    0.000E+00                                 T               0         AD User property on blade 1, node 35, -
         45    0.000E+00                                 T               0         AD User property on blade 1, node 36, -
         46    0.000E+00                                 T               0         AD User property on blade 1, node 37, -
         47    0.000E+00                                 T               0         AD User property on blade 1, node 38, -
         48    0.000E+00                                 T               0         AD User property on blade 1, node 39, -
         49    0.000E+00                                 T               0         AD User property on blade 1, node 40, -
         50    0.000E+00                                 T               0         AD User property on blade 1, node 41, -
         51    0.000E+00                                 T               0         AD User property on blade 1, node 42, -
         52    0.000E+00                                 T               0         AD User property on blade 1, node 43, -
         53    0.000E+00                                 T               0         AD User property on blade 1, node 44, -
         54    0.000E+00                                 T               0         AD User property on blade 1, node 45, -
         55    0.000E+00                                 T               0         AD User property on blade 1, node 46, -
         56    0.000E+00                                 T               0         AD User property on blade 1, node 47, -
         57    0.000E+00                                 T               0         AD User property on blade 1, node 48, -
         58    0.000E+00                                 T               0         AD User property on blade 1, node 49, -
         59    0.000E+00                                 T               0         AD User property on blade 1, node 50, -
         60    0.000E+00                                 T               0         AD User property on blade 2, node 1, -
         61    0.000E+00                                 T               0         AD User property on blade 2, node 2, -
         62    0.000E+00                                 T               0         AD User property on blade 2, node 3, -
         63    0.000E+00                                 T               0         AD User property on blade 2, node 4, -
         64    0.000E+00                                 T               0         AD User property on blade 2, node 5, -
         65    0.000E+00                                 T               0         AD User property on blade 2, node 6, -
         66    0.000E+00                                 T               0         AD User property on blade 2, node 7, -
         67    0.000E+00                                 T               0         AD User property on blade 2, node 8, -
         68    0.000E+00                                 T               0         AD User property on blade 2, node 9, -
         69    0.000E+00                                 T               0         AD User property on blade 2, node 10, -
         70    0.000E+00                                 T               0         AD User property on blade 2, node 11, -
         71    0.000E+00                                 T               0         AD User property on blade 2, node 12, -
         72    0.000E+00                                 T               0         AD User property on blade 2, node 13, -
         73    0.000E+00                                 T               0         AD User property on blade 2, node 14, -
         74    0.000E+00                                 T               0         AD User property on blade 2, node 15, -
         75    0.000E+00                                 T               0         AD User property on blade 2, node 16, -
         76    0.000E+00                                 T               0         AD User property on blade 2, node 17, -
         77    0.000E+00                                 T               0         AD User property on blade 2, node 18, -
         78    0.000E+00                                 T               0         AD User property on blade 2, node 19, -
         79    0.000E+00                                 T               0         AD User property on blade 2, node 20, -
         80    0.000E+00                                 T               0         AD User property on blade 2, node 21, -
         81    0.000E+00                                 T               0         AD User property on blade 2, node 22, -
         82    0.000E+00                                 T               0         AD User property on blade 2, node 23, -
         83    0.000E+00                                 T               0         AD User property on blade 2, node 24, -
         84    0.000E+00                                 T               0         AD User property on blade 2, node 25, -
         85    0.000E+00                                 T               0         AD User property on blade 2, node 26, -
         86    0.000E+00                                 T               0         AD User property on blade 2, node 27, -
         87    0.000E+00                                 T               0         AD User property on blade 2, node 28, -
         88    0.000E+00                                 T               0         AD User property on blade 2, node 29, -
         89    0.000E+00                                 T               0         AD User property on blade 2, node 30, -
         90    0.000E+00                                 T               0         AD User property on blade 2, node 31, -
         91    0.000E+00                                 T               0         AD User property on blade 2, node 32, -
         92    0.000E+00                                 T               0         AD User property on blade 2, node 33, -
         93    0.000E+00                                 T               0         AD User property on blade 2, node 34, -
         94    0.000E+00                                 T               0         AD User property on blade 2, node 35, -
         95    0.000E+00                                 T               0         AD User property on blade 2, node 36, -
         96    0.000E+00                                 T               0         AD User property on blade 2, node 37, -
         97    0.000E+00                                 T               0         AD User property on blade 2, node 38, -
         98    0.000E+00                                 T               0         AD User property on blade 2, node 39, -
         99    0.000E+00                                 T               0         AD User property on blade 2, node 40, -
        100    0.000E+00                                 T               0         AD User property on blade 2, node 41, -
        101    0.000E+00                                 T               0         AD User property on blade 2, node 42, -
        102    0.000E+00                                 T               0         AD User property on blade 2, node 43, -
        103    0.000E+00                                 T               0         AD User property on blade 2, node 44, -
        104    0.000E+00                                 T               0         AD User property on blade 2, node 45, -
        105    0.000E+00                                 T               0         AD User property on blade 2, node 46, -
        106    0.000E+00                                 T               0         AD User property on blade 2, node 47, -
        107    0.000E+00                                 T               0         AD User property on blade 2, node 48, -
        108    0.000E+00                                 T               0         AD User property on blade 2, node 49, -
        109    0.000E+00                                 T               0         AD User property on blade 2, node 50, -
        110    0.000E+00                                 T               0         AD User property on blade 3, node 1, -
        111    0.000E+00                                 T               0         AD User property on blade 3, node 2, -
        112    0.000E+00                                 T               0         AD User property on blade 3, node 3, -
        113    0.000E+00                                 T               0         AD User property on blade 3, node 4, -
        114    0.000E+00                                 T               0         AD User property on blade 3, node 5, -
        115    0.000E+00                                 T               0         AD User property on blade 3, node 6, -
        116    0.000E+00                                 T               0         AD User property on blade 3, node 7, -
        117    0.000E+00                                 T               0         AD User property on blade 3, node 8, -
        118    0.000E+00                                 T               0         AD User property on blade 3, node 9, -
        119    0.000E+00                                 T               0         AD User property on blade 3, node 10, -
        120    0.000E+00                                 T               0         AD User property on blade 3, node 11, -
        121    0.000E+00                                 T               0         AD User property on blade 3, node 12, -
        122    0.000E+00                                 T               0         AD User property on blade 3, node 13, -
        123    0.000E+00                                 T               0         AD User property on blade 3, node 14, -
        124    0.000E+00                                 T               0         AD User property on blade 3, node 15, -
        125    0.000E+00                                 T               0         AD User property on blade 3, node 16, -
        126    0.000E+00                                 T               0         AD User property on blade 3, node 17, -
        127    0.000E+00                                 T               0         AD User property on blade 3, node 18, -
        128    0.000E+00                                 T               0         AD User property on blade 3, node 19, -
        129    0.000E+00                                 T               0         AD User property on blade 3, node 20, -
        130    0.000E+00                                 T               0         AD User property on blade 3, node 21, -
        131    0.000E+00                                 T               0         AD User property on blade 3, node 22, -
        132    0.000E+00                                 T               0         AD User property on blade 3, node 23, -
        133    0.000E+00                                 T               0         AD User property on blade 3, node 24, -
        134    0.000E+00                                 T               0         AD User property on blade 3, node 25, -
        135    0.000E+00                                 T               0         AD User property on blade 3, node 26, -
        136    0.000E+00                                 T               0         AD User property on blade 3, node 27, -
        137    0.000E+00                                 T               0         AD User property on blade 3, node 28, -
        138    0.000E+00                                 T               0         AD User property on blade 3, node 29, -
        139    0.000E+00                                 T               0         AD User property on blade 3, node 30, -
        140    0.000E+00                                 T               0         AD User property on blade 3, node 31, -
        141    0.000E+00                                 T               0         AD User property on blade 3, node 32, -
        142    0.000E+00                                 T               0         AD User property on blade 3, node 33, -
        143    0.000E+00                                 T               0         AD User property on blade 3, node 34, -
        144    0.000E+00                                 T               0         AD User property on blade 3, node 35, -
        145    0.000E+00                                 T               0         AD User property on blade 3, node 36, -