
FAST Summary File

Predictions were generated on 13-Apr-2023 at 21:21:53 using OpenFAST, compiled as a 64-bit application using single precision at commit v3.2.1
  compiled with
    NWTC Subroutine Library
    ElastoDyn
    BeamDyn (unknown version, unknown date) [not called]
    InflowWind
    AeroDyn14 (unknown version, unknown date) [not called]
    AeroDyn (unknown version, unknown date) [not called]
    ServoDyn
    HydroDyn
    SubDyn (unknown version, unknown date) [not called]
    ExtPtfm_MCKF (unknown version, unknown date) [not called]
    MAP++ (<1.20.10>, <Aug-01-2022>)
    FEAMooring (unknown version, unknown date) [not called]
    MoorDyn (unknown version, unknown date) [not called]
    OrcaFlexInterface (unknown version, unknown date) [not called]
    IceFloe (unknown version, unknown date) [not called]
    IceDyn (unknown version, unknown date) [not called]


Modeling a floating offshore turbine
Description from the FAST input file: 
  FAST Certification Test #25: NREL 5.0 MW Baseline Wind Turbine with OC4-DeepCwind semi configuration, for use in offshore analysis

Interpolation order for input/output time histories: 2 (quadratic)
Number of correction iterations:  0
Number of rows in Jacobian matrix used for coupling ElastoDyn to HydroDyn:     12


   Requested Time Steps  
  -------------------------------------------------
  Component          Time Step (s)    Subcycles (-)
  -----------------  ---------------  -------------
  FAST (glue code)    1.250E-02
  InflowWind          1.250E-02              1
  ElastoDyn           1.250E-02              1
  ServoDyn            1.250E-02              1
  HydroDyn            1.250E-02              1
  MAP++               1.250E-02              1
  FAST output files   5.000E-02              4^-1


   Requested Channels in FAST Output File(s)  
  --------------------------------------------
  Number  Name                  Units                 Generated by
  ------  --------------------  --------------------  ------------
       1  Time                  (s)                   OpenFAST
       2  Wind1VelX             (m/s)                 InflowWind
       3  Wind1VelY             (m/s)                 InflowWind
       4  Wind1VelZ             (m/s)                 InflowWind
       5  PtfmSurge             (m)                   ElastoDyn
       6  PtfmSway              (m)                   ElastoDyn
       7  PtfmHeave             (m)                   ElastoDyn
       8  PtfmRoll              (deg)                 ElastoDyn
       9  PtfmPitch             (deg)                 ElastoDyn
      10  PtfmYaw               (deg)                 ElastoDyn
      11  YawBrMzp              (kN-m)                ElastoDyn
      12  TTDspFA               (m)                   ElastoDyn
      13  Wave1Elev             (m)                   HydroDyn
      14  T[1]                  [N]                   MAP++
      15  T_a[1]                [N]                   MAP++
      16  T[2]                  [N]                   MAP++
      17  T_a[2]                [N]                   MAP++
      18  T[3]                  [N]                   MAP++
      19  T_a[3]                [N]                   MAP++
