
FAST Summary File

Predictions were generated on 22-Apr-2023 at 17:15:43 using OpenFAST, compiled as a 64-bit application using single precision at commit v3.2.1
  compiled with
    NWTC Subroutine Library
    ElastoDyn
    BeamDyn (unknown version, unknown date) [not called]
    InflowWind
    AeroDyn14 (unknown version, unknown date) [not called]
    AeroDyn
    ServoDyn
    HydroDyn (unknown version, unknown date) [not called]
    SubDyn (unknown version, unknown date) [not called]
    ExtPtfm_MCKF (unknown version, unknown date) [not called]
    MAP (unknown version, unknown date) [not called]
    FEAMooring (unknown version, unknown date) [not called]
    MoorDyn (unknown version, unknown date) [not called]
    OrcaFlexInterface (unknown version, unknown date) [not called]
    IceFloe (unknown version, unknown date) [not called]
    IceDyn (unknown version, unknown date) [not called]


Modeling a land-based turbine
Description from the FAST input file: 
  FAST Certification Test #19: NREL 5.0 MW Baseline Wind Turbine with OC3 Monopile RF Configuration, for use in offshore analysis

Interpolation order for input/output time histories: 2 (quadratic)
Number of correction iterations:  0


   Requested Time Steps  
  -------------------------------------------------
  Component          Time Step (s)    Subcycles (-)
  -----------------  ---------------  -------------
  FAST (glue code)    5.000E-03
  InflowWind          5.000E-03              1
  ElastoDyn           5.000E-03              1
  AeroDyn             5.000E-03              1
  ServoDyn            5.000E-03              1
  FAST output files   5.000E-02             10^-1


   Requested Channels in FAST Output File(s)  
  --------------------------------------------
  Number  Name                  Units                 Generated by
  ------  --------------------  --------------------  ------------
       1  Time                  (s)                   OpenFAST
       2  Wind1VelX             (m/s)                 InflowWind
       3  Wind1VelY             (m/s)                 InflowWind
       4  Wind1VelZ             (m/s)                 InflowWind
       5  OoPDefl1              (m)                   ElastoDyn
       6  IPDefl1               (m)                   ElastoDyn
       7  BldPitch1             (deg)                 ElastoDyn
       8  RotSpeed              (rpm)                 ElastoDyn
       9  GenSpeed              (rpm)                 ElastoDyn
      10  YawBrTDxp             (m)                   ElastoDyn
      11  YawBrTVxp             (m/s)                 ElastoDyn
      12  LSShftMxa             (kN-m)                ElastoDyn
      13  LSSGagPxa             (deg)                 ElastoDyn
      14  LSSTipPxa             (deg)                 ElastoDyn
      15  RotThrust             (kN)                  ElastoDyn
      16  RotPwr                (kW)                  ElastoDyn
      17  Q_DrTr                (rad)                 ElastoDyn
      18  RtAeroFxh             (N)                   AeroDyn
      19  RtAeroMxh             (N-m)                 AeroDyn
      20  RtAeroCp              (-)                   AeroDyn
      21  RtAeroCt              (-)                   AeroDyn
      22  RtTSR                 (-)                   AeroDyn
      23  RtVAvgxh              (m/s)                 AeroDyn
      24  RtArea                (m^2)                 AeroDyn
      25  GenPwr                (kW)                  ServoDyn
      26  GenTq                 (kN-m)                ServoDyn
