
FAST Summary File

Predictions were generated on 13-Apr-2023 at 21:32:20 using OpenFAST, compiled as a 64-bit application using single precision at commit v3.2.1
  compiled with
    NWTC Subroutine Library
    ElastoDyn
    BeamDyn
    InflowWind (unknown version, unknown date) [not called]
    AeroDyn14 (unknown version, unknown date) [not called]
    AeroDyn (unknown version, unknown date) [not called]
    ServoDyn
    HydroDyn (unknown version, unknown date) [not called]
    SubDyn (unknown version, unknown date) [not called]
    ExtPtfm_MCKF (unknown version, unknown date) [not called]
    MAP (unknown version, unknown date) [not called]
    FEAMooring (unknown version, unknown date) [not called]
    MoorDyn (unknown version, unknown date) [not called]
    OrcaFlexInterface (unknown version, unknown date) [not called]
    IceFloe (unknown version, unknown date) [not called]
    IceDyn (unknown version, unknown date) [not called]


Modeling a land-based turbine
Description from the FAST input file: 
  FAST Certification Test #26: NREL 5.0 MW Baseline Wind Turbine (Onshore)

Interpolation order for input/output time histories: 2 (quadratic)
Number of correction iterations:  0
Number of rows in Jacobian matrix used for coupling ElastoDyn, SubDyn, HydroDyn, OrcaFlex, ExtPtfm_MCKF, and/or BeamDyn:     24


   Requested Time Steps  
  -------------------------------------------------
  Component          Time Step (s)    Subcycles (-)
  -----------------  ---------------  -------------
  FAST (glue code)    1.500E-03
  ElastoDyn           1.500E-03              1
  BeamDyn             1.500E-03              1
  ServoDyn            1.500E-03              1
  FAST output files   1.500E-03              1


   Requested Channels in FAST Output File(s)  
  --------------------------------------------
  Number  Name                  Units                 Generated by
  ------  --------------------  --------------------  ------------
       1  Time                  (s)                   OpenFAST
       2  BldPitch1             (deg)                 ElastoDyn
       3  Azimuth               (deg)                 ElastoDyn
       4  RotSpeed              (rpm)                 ElastoDyn
       5  GenSpeed              (rpm)                 ElastoDyn
       6  TTDspFA               (m)                   ElastoDyn
       7  TTDspSS               (m)                   ElastoDyn
       8  TTDspTwst             (deg)                 ElastoDyn
       9  RotTorq               (kN-m)                ElastoDyn
      10  LSSGagMya             (kN-m)                ElastoDyn
      11  LSSGagMza             (kN-m)                ElastoDyn
      12  YawBrFxp              (kN)                  ElastoDyn
      13  YawBrFyp              (kN)                  ElastoDyn
      14  YawBrFzp              (kN)                  ElastoDyn
      15  YawBrMxp              (kN-m)                ElastoDyn
      16  YawBrMyp              (kN-m)                ElastoDyn
      17  YawBrMzp              (kN-m)                ElastoDyn
      18  TwrBsFxt              (kN)                  ElastoDyn
      19  TwrBsFyt              (kN)                  ElastoDyn
      20  TwrBsFzt              (kN)                  ElastoDyn
      21  TwrBsMxt              (kN-m)                ElastoDyn
      22  TwrBsMyt              (kN-m)                ElastoDyn
      23  TwrBsMzt              (kN-m)                ElastoDyn
      24  B1RootFxr             (N)                   BeamDyn
      25  B1RootFyr             (N)                   BeamDyn
      26  B1RootFzr             (N)                   BeamDyn
      27  B1RootMxr             (N-m)                 BeamDyn
      28  B1RootMyr             (N-m)                 BeamDyn
      29  B1RootMzr             (N-m)                 BeamDyn
      30  B1TipTDxr             (m)                   BeamDyn
      31  B1TipTDyr             (m)                   BeamDyn
      32  B1TipTDzr             (m)                   BeamDyn
      33  B1TipRDxr             (-)                   BeamDyn
      34  B1TipRDyr             (-)                   BeamDyn
      35  B1TipRDzr             (-)                   BeamDyn
      36  B2RootFxr             (N)                   BeamDyn
      37  B2RootFyr             (N)                   BeamDyn
      38  B2RootFzr             (N)                   BeamDyn
      39  B2RootMxr             (N-m)                 BeamDyn
      40  B2RootMyr             (N-m)                 BeamDyn
      41  B2RootMzr             (N-m)                 BeamDyn
      42  B2TipTDxr             (m)                   BeamDyn
      43  B2TipTDyr             (m)                   BeamDyn
      44  B2TipTDzr             (m)                   BeamDyn
      45  B2TipRDxr             (-)                   BeamDyn
      46  B2TipRDyr             (-)                   BeamDyn
      47  B2TipRDzr             (-)                   BeamDyn
      48  B3RootFxr             (N)                   BeamDyn
      49  B3RootFyr             (N)                   BeamDyn
      50  B3RootFzr             (N)                   BeamDyn
      51  B3RootMxr             (N-m)                 BeamDyn
      52  B3RootMyr             (N-m)                 BeamDyn
      53  B3RootMzr             (N-m)                 BeamDyn
      54  B3TipTDxr             (m)                   BeamDyn
      55  B3TipTDyr             (m)                   BeamDyn
      56  B3TipTDzr             (m)                   BeamDyn
      57  B3TipRDxr             (-)                   BeamDyn
      58  B3TipRDyr             (-)                   BeamDyn
      59  B3TipRDzr             (-)                   BeamDyn
      60  GenPwr                (kW)                  ServoDyn
      61  GenTq                 (kN-m)                ServoDyn
